 TITLE = "body_9_40"
 VARIABLES = "X","Y","Z","Mx","My","Mz", "SD"
 ZONE T="",  N=441,  E=1851
 F=FEBLOCK, ET=TETRAHEDRON, VARLOCATION=([7]=CELLCENTERED)
   0.1271616E+02   0.1272179E+02   0.1271409E+02   0.1271322E+02   0.1271298E+02   0.1271334E+02   0.1271436E+02   0.1271613E+02   0.1271857E+02   0.1272244E+02
   0.1272949E+02   0.1273740E+02   0.1274571E+02   0.1275317E+02   0.1275975E+02   0.1276535E+02   0.1276936E+02   0.1277215E+02   0.1277316E+02   0.1277176E+02
   0.1276842E+02   0.1276380E+02   0.1275684E+02   0.1274870E+02   0.1273997E+02   0.1273090E+02   0.1272234E+02   0.1276514E+02   0.1272101E+02   0.1274233E+02
   0.1272655E+02   0.1272887E+02   0.1273627E+02   0.1272035E+02   0.1274547E+02   0.1271994E+02   0.1275319E+02   0.1275890E+02   0.1276244E+02   0.1272016E+02
   0.1272304E+02   0.1276758E+02   0.1276886E+02   0.1276683E+02   0.1275814E+02   0.1276280E+02   0.1275097E+02   0.1272498E+02   0.1273406E+02   0.1273340E+02
   0.1275302E+02   0.1275906E+02   0.1276145E+02   0.1275333E+02   0.1272747E+02   0.1274587E+02   0.1272695E+02   0.1273808E+02   0.1274447E+02   0.1272970E+02
   0.1272815E+02   0.1275931E+02   0.1275694E+02   0.1273134E+02   0.1275147E+02   0.1273697E+02   0.1273835E+02   0.1273795E+02   0.1273478E+02   0.1273581E+02
   0.1274519E+02   0.1274843E+02   0.1275291E+02   0.1274607E+02   0.1272761E+02   0.1274485E+02   0.1274010E+02   0.1274340E+02   0.1273308E+02   0.1271137E+02
   0.1270730E+02   0.1270403E+02   0.1270178E+02   0.1270076E+02   0.1270122E+02   0.1270356E+02   0.1270787E+02   0.1271380E+02   0.1272104E+02   0.1272879E+02
   0.1273124E+02   0.1273233E+02   0.1273251E+02   0.1273194E+02   0.1272636E+02   0.1272077E+02   0.1273803E+02   0.1272866E+02   0.1274700E+02   0.1275320E+02
   0.1275908E+02   0.1276453E+02   0.1276854E+02   0.1276950E+02   0.1276861E+02   0.1270968E+02   0.1270527E+02   0.1274001E+02   0.1273633E+02   0.1271393E+02
   0.1276645E+02   0.1270690E+02   0.1276361E+02   0.1270519E+02   0.1275907E+02   0.1271021E+02   0.1272162E+02   0.1271544E+02   0.1270684E+02   0.1272883E+02
   0.1275277E+02   0.1273678E+02   0.1273825E+02   0.1273925E+02   0.1274491E+02   0.1274472E+02   0.1274321E+02   0.1274819E+02   0.1272372E+02   0.1273016E+02
   0.1271815E+02   0.1271488E+02   0.1275387E+02   0.1271247E+02   0.1275814E+02   0.1276027E+02   0.1274507E+02   0.1271185E+02   0.1271249E+02   0.1271461E+02
   0.1271784E+02   0.1276216E+02   0.1276317E+02   0.1276222E+02   0.1275716E+02   0.1275101E+02   0.1274479E+02   0.1273633E+02   0.1272813E+02   0.1274952E+02
   0.1273495E+02   0.1274233E+02   0.1274886E+02   0.1275455E+02   0.1275570E+02   0.1275658E+02   0.1272354E+02   0.1272113E+02   0.1272054E+02   0.1275556E+02
   0.1275471E+02   0.1275292E+02   0.1272089E+02   0.1273165E+02   0.1272495E+02   0.1272130E+02   0.1273672E+02   0.1272967E+02   0.1272849E+02   0.1274967E+02
   0.1274988E+02   0.1272980E+02   0.1274989E+02   0.1274780E+02   0.1274179E+02   0.1274807E+02   0.1274324E+02   0.1273749E+02   0.1272688E+02   0.1274397E+02
   0.1273891E+02   0.1274320E+02   0.1273639E+02   0.1274361E+02   0.1274436E+02   0.1273505E+02   0.1273145E+02   0.1273850E+02   0.1273646E+02   0.1271732E+02
   0.1272330E+02   0.1272168E+02   0.1272440E+02   0.1271355E+02   0.1270727E+02   0.1269943E+02   0.1269847E+02   0.1271347E+02   0.1271074E+02   0.1270609E+02
   0.1270908E+02   0.1270823E+02   0.1270885E+02   0.1269942E+02   0.1270187E+02   0.1272498E+02   0.1270231E+02   0.1270720E+02   0.1270353E+02   0.1270429E+02
   0.1270302E+02   0.1270597E+02   0.1269924E+02   0.1269832E+02   0.1269953E+02   0.1270291E+02   0.1270805E+02   0.1271704E+02   0.1271555E+02   0.1271381E+02
   0.1270886E+02   0.1270053E+02   0.1270239E+02   0.1270609E+02   0.1271017E+02   0.1270521E+02   0.1270137E+02   0.1269942E+02   0.1270046E+02   0.1271797E+02
   0.1271075E+02   0.1276017E+02   0.1275381E+02   0.1276170E+02   0.1275083E+02   0.1275666E+02   0.1274609E+02   0.1274717E+02   0.1275516E+02   0.1276364E+02
   0.1274435E+02   0.1274648E+02   0.1275363E+02   0.1274672E+02   0.1274054E+02   0.1273977E+02   0.1274224E+02   0.1274900E+02   0.1275948E+02   0.1273834E+02
   0.1273944E+02   0.1275568E+02   0.1274000E+02   0.1273300E+02   0.1273394E+02   0.1273271E+02   0.1274358E+02   0.1273549E+02   0.1274924E+02   0.1273301E+02
   0.1273383E+02   0.1275622E+02   0.1275645E+02   0.1275956E+02   0.1272890E+02   0.1275440E+02   0.1275678E+02   0.1272704E+02   0.1272694E+02   0.1272761E+02
   0.1273948E+02   0.1272985E+02   0.1274555E+02   0.1275407E+02   0.1274984E+02   0.1275001E+02   0.1275481E+02   0.1272143E+02   0.1272255E+02   0.1274792E+02
   0.1275141E+02   0.1272220E+02   0.1272194E+02   0.1272250E+02   0.1273789E+02   0.1273105E+02   0.1272304E+02   0.1274404E+02   0.1274418E+02   0.1274427E+02
   0.1274467E+02   0.1273737E+02   0.1274993E+02   0.1274981E+02   0.1271619E+02   0.1274220E+02   0.1274575E+02   0.1271588E+02   0.1271608E+02   0.1271488E+02
   0.1273048E+02   0.1272427E+02   0.1271760E+02   0.1271501E+02   0.1273767E+02   0.1273907E+02   0.1273680E+02   0.1274027E+02   0.1272838E+02   0.1274567E+02
   0.1274376E+02   0.1271196E+02   0.1274022E+02   0.1271228E+02   0.1272176E+02   0.1271354E+02   0.1273931E+02   0.1273211E+02   0.1271303E+02   0.1273090E+02
   0.1273184E+02   0.1273290E+02   0.1272783E+02   0.1273279E+02   0.1271054E+02   0.1272325E+02   0.1274123E+02   0.1273854E+02   0.1270884E+02   0.1270827E+02
   0.1272052E+02   0.1272864E+02   0.1272885E+02   0.1273491E+02   0.1271606E+02   0.1272608E+02   0.1272387E+02   0.1272432E+02   0.1272316E+02   0.1273023E+02
   0.1270724E+02   0.1270756E+02   0.1270783E+02   0.1272255E+02   0.1273495E+02   0.1271404E+02   0.1270799E+02   0.1270679E+02   0.1271900E+02   0.1272480E+02
   0.1272530E+02   0.1270826E+02   0.1272765E+02   0.1273425E+02   0.1271214E+02   0.1271731E+02   0.1272992E+02   0.1272290E+02   0.1271442E+02   0.1270711E+02
   0.1270625E+02   0.1271857E+02   0.1270669E+02   0.1271713E+02   0.1271128E+02   0.1270596E+02   0.1271113E+02   0.1271854E+02   0.1270846E+02   0.1271409E+02
   0.1272446E+02   0.1272069E+02   0.1271360E+02   0.1276304E+02   0.1275094E+02   0.1274952E+02   0.1274882E+02   0.1274445E+02   0.1274484E+02   0.1274516E+02
   0.1274707E+02   0.1274186E+02   0.1273993E+02   0.1273564E+02   0.1273829E+02   0.1273869E+02   0.1274231E+02   0.1273841E+02   0.1273820E+02   0.1273567E+02
   0.1274252E+02   0.1273694E+02   0.1273157E+02   0.1273597E+02   0.1272791E+02   0.1273448E+02   0.1273335E+02   0.1273815E+02   0.1273323E+02   0.1273057E+02
   0.1273051E+02   0.1273536E+02   0.1273041E+02   0.1272446E+02   0.1272903E+02   0.1272197E+02   0.1272892E+02   0.1272625E+02   0.1272949E+02   0.1272929E+02
   0.1272610E+02   0.1272687E+02   0.1272271E+02   0.1271846E+02   0.1272003E+02   0.1272033E+02   0.1272235E+02   0.1272691E+02   0.1272751E+02   0.1271922E+02
   0.1271955E+02   0.1272391E+02   0.1272144E+02   0.1272195E+02   0.1271323E+02   0.1271457E+02   0.1271198E+02   0.1271002E+02   0.1271599E+02   0.1271954E+02
   0.1271519E+02   0.1271288E+02   0.1273235E+02   0.1272185E+02   0.1273136E+02   0.1272258E+02   0.1272638E+02   0.1273261E+02   0.1272835E+02   0.1271703E+02
   0.1273970E+02
   0.1731535E+02   0.1738417E+02   0.1732330E+02   0.1733192E+02   0.1734077E+02   0.1734970E+02   0.1735863E+02   0.1736745E+02   0.1737604E+02   0.1730865E+02
   0.1730283E+02   0.1729850E+02   0.1730018E+02   0.1730542E+02   0.1731166E+02   0.1731883E+02   0.1732704E+02   0.1733574E+02   0.1734467E+02   0.1735358E+02
   0.1736215E+02   0.1737001E+02   0.1737535E+02   0.1737907E+02   0.1738166E+02   0.1738333E+02   0.1731584E+02   0.1733276E+02   0.1735317E+02   0.1737329E+02
   0.1737772E+02   0.1730853E+02   0.1730451E+02   0.1732633E+02   0.1730783E+02   0.1733583E+02   0.1731360E+02   0.1731850E+02   0.1732485E+02   0.1734455E+02
   0.1736198E+02   0.1734159E+02   0.1734923E+02   0.1735606E+02   0.1736799E+02   0.1736304E+02   0.1737094E+02   0.1737016E+02   0.1737534E+02   0.1736656E+02
   0.1736142E+02   0.1735590E+02   0.1734794E+02   0.1732376E+02   0.1733977E+02   0.1731675E+02   0.1733120E+02   0.1731228E+02   0.1736516E+02   0.1735684E+02
   0.1734807E+02   0.1734004E+02   0.1733133E+02   0.1731550E+02   0.1733938E+02   0.1735140E+02   0.1735968E+02   0.1732110E+02   0.1733570E+02   0.1734333E+02
   0.1732484E+02   0.1733169E+02   0.1734969E+02   0.1735604E+02   0.1732197E+02   0.1734698E+02   0.1733081E+02   0.1733888E+02   0.1732744E+02   0.1732257E+02
   0.1732994E+02   0.1733749E+02   0.1734513E+02   0.1735283E+02   0.1736047E+02   0.1736778E+02   0.1737456E+02   0.1738073E+02   0.1738616E+02   0.1739061E+02
   0.1739568E+02   0.1739814E+02   0.1739822E+02   0.1739582E+02   0.1739111E+02   0.1731471E+02   0.1730542E+02   0.1730985E+02   0.1730591E+02   0.1731093E+02
   0.1731778E+02   0.1732578E+02   0.1733252E+02   0.1733953E+02   0.1734783E+02   0.1733216E+02   0.1734597E+02   0.1739303E+02   0.1738935E+02   0.1732435E+02
   0.1735723E+02   0.1733896E+02   0.1736585E+02   0.1735298E+02   0.1737497E+02   0.1736614E+02   0.1737726E+02   0.1737212E+02   0.1735970E+02   0.1738192E+02
   0.1738156E+02   0.1738944E+02   0.1739322E+02   0.1739440E+02   0.1738643E+02   0.1738824E+02   0.1738562E+02   0.1738663E+02   0.1736858E+02   0.1737355E+02
   0.1736403E+02   0.1735856E+02   0.1737944E+02   0.1735296E+02   0.1737020E+02   0.1736024E+02   0.1738953E+02   0.1734742E+02   0.1734134E+02   0.1733541E+02
   0.1732892E+02   0.1735112E+02   0.1734273E+02   0.1733482E+02   0.1732574E+02   0.1731844E+02   0.1731267E+02   0.1731317E+02   0.1731769E+02   0.1738297E+02
   0.1732154E+02   0.1732003E+02   0.1732655E+02   0.1733280E+02   0.1733996E+02   0.1734641E+02   0.1733373E+02   0.1733929E+02   0.1734471E+02   0.1735459E+02
   0.1736460E+02   0.1737448E+02   0.1735228E+02   0.1736401E+02   0.1735991E+02   0.1732192E+02   0.1738163E+02   0.1735464E+02   0.1734766E+02   0.1736863E+02
   0.1735839E+02   0.1734001E+02   0.1734762E+02   0.1733679E+02   0.1732854E+02   0.1737813E+02   0.1737782E+02   0.1737215E+02   0.1732653E+02   0.1736998E+02
   0.1733663E+02   0.1734340E+02   0.1734583E+02   0.1735257E+02   0.1736163E+02   0.1732868E+02   0.1733348E+02   0.1736341E+02   0.1735494E+02   0.1739001E+02
   0.1739709E+02   0.1739454E+02   0.1739929E+02   0.1738934E+02   0.1738300E+02   0.1736857E+02   0.1736082E+02   0.1738197E+02   0.1737344E+02   0.1733920E+02
   0.1736484E+02   0.1735563E+02   0.1732982E+02   0.1735394E+02   0.1734610E+02   0.1740014E+02   0.1737610E+02   0.1734719E+02   0.1736162E+02   0.1737049E+02
   0.1735422E+02   0.1737946E+02   0.1736118E+02   0.1736941E+02   0.1737610E+02   0.1738389E+02   0.1739025E+02   0.1739938E+02   0.1739691E+02   0.1739443E+02
   0.1738733E+02   0.1737504E+02   0.1738336E+02   0.1739060E+02   0.1739536E+02   0.1739064E+02   0.1738461E+02   0.1737808E+02   0.1736810E+02   0.1739865E+02
   0.1739615E+02   0.1733070E+02   0.1733747E+02   0.1733797E+02   0.1733025E+02   0.1732490E+02   0.1733804E+02   0.1734534E+02   0.1734538E+02   0.1734517E+02
   0.1733080E+02   0.1732341E+02   0.1731917E+02   0.1731405E+02   0.1734322E+02   0.1733554E+02   0.1735148E+02   0.1735504E+02   0.1735266E+02   0.1732755E+02
   0.1731921E+02   0.1735963E+02   0.1731113E+02   0.1734073E+02   0.1734740E+02   0.1733402E+02   0.1735956E+02   0.1735525E+02   0.1736394E+02   0.1732222E+02
   0.1731436E+02   0.1734035E+02   0.1734684E+02   0.1736231E+02   0.1732802E+02   0.1733310E+02   0.1735551E+02   0.1734421E+02   0.1733652E+02   0.1735222E+02
   0.1736659E+02   0.1736137E+02   0.1737126E+02   0.1736834E+02   0.1733940E+02   0.1735042E+02   0.1736379E+02   0.1733286E+02   0.1732331E+02   0.1732622E+02
   0.1735970E+02   0.1734895E+02   0.1734017E+02   0.1735713E+02   0.1737398E+02   0.1736927E+02   0.1736545E+02   0.1733333E+02   0.1734342E+02   0.1735344E+02
   0.1737857E+02   0.1738070E+02   0.1737327E+02   0.1736965E+02   0.1733754E+02   0.1731989E+02   0.1736442E+02   0.1735455E+02   0.1734602E+02   0.1736219E+02
   0.1737745E+02   0.1737255E+02   0.1737058E+02   0.1732944E+02   0.1733622E+02   0.1732729E+02   0.1734560E+02   0.1735924E+02   0.1738174E+02   0.1737855E+02
   0.1737275E+02   0.1734536E+02   0.1736700E+02   0.1736854E+02   0.1737759E+02   0.1737600E+02   0.1738527E+02   0.1738877E+02   0.1733758E+02   0.1733345E+02
   0.1734029E+02   0.1732053E+02   0.1734696E+02   0.1736210E+02   0.1735783E+02   0.1738394E+02   0.1738150E+02   0.1737552E+02   0.1734505E+02   0.1735180E+02
   0.1733019E+02   0.1732610E+02   0.1735545E+02   0.1736887E+02   0.1738261E+02   0.1739114E+02   0.1733407E+02   0.1734043E+02   0.1735233E+02   0.1737121E+02
   0.1737171E+02   0.1736496E+02   0.1737888E+02   0.1738959E+02   0.1738687E+02   0.1733978E+02   0.1735217E+02   0.1735929E+02   0.1734547E+02   0.1735918E+02
   0.1736557E+02   0.1738300E+02   0.1739267E+02   0.1738330E+02   0.1734593E+02   0.1735425E+02   0.1737794E+02   0.1737194E+02   0.1738815E+02   0.1735866E+02
   0.1736598E+02   0.1736337E+02   0.1737341E+02   0.1739219E+02   0.1735144E+02   0.1737907E+02   0.1738444E+02   0.1739038E+02   0.1736584E+02   0.1737101E+02
   0.1738647E+02   0.1738031E+02   0.1738040E+02   0.1735038E+02   0.1735201E+02   0.1734359E+02   0.1735743E+02   0.1735665E+02   0.1735005E+02   0.1736404E+02
   0.1733569E+02   0.1737042E+02   0.1735526E+02   0.1736154E+02   0.1735033E+02   0.1736076E+02   0.1734082E+02   0.1734710E+02   0.1736788E+02   0.1734234E+02
   0.1733127E+02   0.1737505E+02   0.1735528E+02   0.1736823E+02   0.1736235E+02   0.1735432E+02   0.1736300E+02   0.1733931E+02   0.1737118E+02   0.1734788E+02
   0.1734767E+02   0.1733234E+02   0.1734034E+02   0.1735232E+02   0.1737100E+02   0.1735918E+02   0.1733955E+02   0.1736196E+02   0.1738139E+02   0.1737580E+02
   0.1735507E+02   0.1736865E+02   0.1734469E+02   0.1736475E+02   0.1737274E+02   0.1734253E+02   0.1734858E+02   0.1733195E+02   0.1731464E+02   0.1735244E+02
   0.1736200E+02   0.1738183E+02   0.1737643E+02   0.1733599E+02   0.1736787E+02   0.1737752E+02   0.1735908E+02   0.1737421E+02   0.1734974E+02   0.1738406E+02
   0.1735783E+02   0.1736305E+02   0.1735667E+02   0.1735616E+02   0.1736603E+02   0.1736386E+02   0.1737358E+02   0.1737907E+02   0.1738436E+02   0.1736970E+02
   0.1732504E+02
   0.1407754E+00   0.1347523E+00   0.1371737E+00   0.1347353E+00   0.1330980E+00   0.1320027E+00   0.1314304E+00   0.1315912E+00   0.1326400E+00   0.1417286E+00
   0.1426353E+00   0.1406870E+00   0.1389830E+00   0.1385088E+00   0.1402425E+00   0.1407554E+00   0.1394758E+00   0.1386919E+00   0.1406853E+00   0.1416797E+00
   0.1408911E+00   0.1401055E+00   0.1373352E+00   0.1350783E+00   0.1336528E+00   0.1335282E+00   0.1348412E+00   0.1340484E+00   0.1288481E+00   0.1306264E+00
   0.1315041E+00   0.1357687E+00   0.1357960E+00   0.1321059E+00   0.1343474E+00   0.1302282E+00   0.1342189E+00   0.1349451E+00   0.1346644E+00   0.1292286E+00
   0.1289456E+00   0.1341522E+00   0.1350745E+00   0.1347286E+00   0.1335423E+00   0.1341555E+00   0.1318621E+00   0.1298165E+00   0.1304699E+00   0.1283750E+00
   0.1299837E+00   0.1309207E+00   0.1313422E+00   0.1315108E+00   0.1274432E+00   0.1314728E+00   0.1287067E+00   0.1325713E+00   0.1288823E+00   0.1274093E+00
   0.1271643E+00   0.1308747E+00   0.1311816E+00   0.1321829E+00   0.1287853E+00   0.1267423E+00   0.1274634E+00   0.1297593E+00   0.1270117E+00   0.1266003E+00
   0.1294320E+00   0.1288968E+00   0.1288357E+00   0.1278536E+00   0.1307960E+00   0.1273198E+00   0.1277920E+00   0.1273534E+00   0.1283789E+00   0.1437119E+00
   0.1472806E+00   0.1512907E+00   0.1557917E+00   0.1606016E+00   0.1655767E+00   0.1705039E+00   0.1748346E+00   0.1779743E+00   0.1790714E+00   0.1774015E+00
   0.1703238E+00   0.1616200E+00   0.1524906E+00   0.1438799E+00   0.1385243E+00   0.1480244E+00   0.1462386E+00   0.1480001E+00   0.1449100E+00   0.1457011E+00
   0.1466596E+00   0.1468764E+00   0.1459039E+00   0.1464311E+00   0.1476249E+00   0.1556527E+00   0.1640170E+00   0.1473445E+00   0.1383565E+00   0.1515460E+00
   0.1480061E+00   0.1596147E+00   0.1477373E+00   0.1682693E+00   0.1456992E+00   0.1764699E+00   0.1805073E+00   0.1792308E+00   0.1725330E+00   0.1797860E+00
   0.1425937E+00   0.1733132E+00   0.1661088E+00   0.1571940E+00   0.1400309E+00   0.1618917E+00   0.1692229E+00   0.1482254E+00   0.1798789E+00   0.1795030E+00
   0.1789647E+00   0.1766858E+00   0.1513309E+00   0.1733097E+00   0.1531607E+00   0.1538573E+00   0.1538125E+00   0.1699292E+00   0.1661019E+00   0.1622633E+00
   0.1583301E+00   0.1530557E+00   0.1518451E+00   0.1510790E+00   0.1510951E+00   0.1505183E+00   0.1493139E+00   0.1507360E+00   0.1529525E+00   0.1578538E+00
   0.1554097E+00   0.1535938E+00   0.1547970E+00   0.1547705E+00   0.1561170E+00   0.1568717E+00   0.1629369E+00   0.1666550E+00   0.1700534E+00   0.1586421E+00
   0.1593970E+00   0.1588747E+00   0.1743500E+00   0.1770248E+00   0.1773913E+00   0.1539428E+00   0.1767396E+00   0.1741619E+00   0.1710795E+00   0.1651752E+00
   0.1638427E+00   0.1665335E+00   0.1615518E+00   0.1591998E+00   0.1578534E+00   0.1656674E+00   0.1721574E+00   0.1761831E+00   0.1584148E+00   0.1711718E+00
   0.1624633E+00   0.1638519E+00   0.1676506E+00   0.1669519E+00   0.1691185E+00   0.1593205E+00   0.1624479E+00   0.1735912E+00   0.1716320E+00   0.1398964E+00
   0.1456485E+00   0.1743785E+00   0.1658362E+00   0.1746831E+00   0.1721518E+00   0.1621719E+00   0.1568209E+00   0.1366544E+00   0.1351267E+00   0.1402556E+00
   0.1348227E+00   0.1352100E+00   0.1406543E+00   0.1504643E+00   0.1459793E+00   0.1562159E+00   0.1675652E+00   0.1369645E+00   0.1396476E+00   0.1392872E+00
   0.1409644E+00   0.1400347E+00   0.1476310E+00   0.1531132E+00   0.1598091E+00   0.1645303E+00   0.1682696E+00   0.1605883E+00   0.1689162E+00   0.1464127E+00
   0.1423695E+00   0.1458821E+00   0.1470270E+00   0.1504477E+00   0.1626637E+00   0.1597850E+00   0.1563064E+00   0.1522392E+00   0.1444142E+00   0.1518565E+00
   0.1549633E+00   0.1412368E+00   0.1375727E+00   0.1406216E+00   0.1376004E+00   0.1405928E+00   0.1362244E+00   0.1362332E+00   0.1379437E+00   0.1411940E+00
   0.1351895E+00   0.1377480E+00   0.1417788E+00   0.1402511E+00   0.1344128E+00   0.1346179E+00   0.1340253E+00   0.1364966E+00   0.1388400E+00   0.1355300E+00
   0.1370826E+00   0.1384878E+00   0.1413426E+00   0.1333213E+00   0.1342367E+00   0.1349358E+00   0.1359892E+00   0.1358309E+00   0.1373812E+00   0.1386128E+00
   0.1403445E+00   0.1469293E+00   0.1475431E+00   0.1425171E+00   0.1376884E+00   0.1459890E+00   0.1476594E+00   0.1351494E+00   0.1358544E+00   0.1351333E+00
   0.1367201E+00   0.1354569E+00   0.1392541E+00   0.1403797E+00   0.1500703E+00   0.1525490E+00   0.1470638E+00   0.1387948E+00   0.1422154E+00   0.1457625E+00
   0.1520583E+00   0.1363795E+00   0.1383353E+00   0.1365828E+00   0.1387556E+00   0.1371527E+00   0.1374213E+00   0.1505068E+00   0.1539173E+00   0.1579016E+00
   0.1425205E+00   0.1442451E+00   0.1458047E+00   0.1533102E+00   0.1416193E+00   0.1444759E+00   0.1576544E+00   0.1391424E+00   0.1392959E+00   0.1383790E+00
   0.1378705E+00   0.1382501E+00   0.1394197E+00   0.1432819E+00   0.1540715E+00   0.1500892E+00   0.1591667E+00   0.1630033E+00   0.1425763E+00   0.1513864E+00
   0.1590373E+00   0.1451885E+00   0.1633315E+00   0.1422620E+00   0.1401886E+00   0.1433285E+00   0.1509586E+00   0.1478526E+00   0.1479686E+00   0.1540124E+00
   0.1574052E+00   0.1457086E+00   0.1623676E+00   0.1676182E+00   0.1435495E+00   0.1438704E+00   0.1595343E+00   0.1653190E+00   0.1520738E+00   0.1477013E+00
   0.1496233E+00   0.1496914E+00   0.1657663E+00   0.1676333E+00   0.1454284E+00   0.1536061E+00   0.1540935E+00   0.1584051E+00   0.1650638E+00   0.1706415E+00
   0.1475265E+00   0.1463758E+00   0.1477373E+00   0.1475160E+00   0.1587344E+00   0.1545923E+00   0.1547752E+00   0.1524157E+00   0.1616348E+00   0.1696015E+00
   0.1706228E+00   0.1525557E+00   0.1614866E+00   0.1675321E+00   0.1585681E+00   0.1667847E+00   0.1715137E+00   0.1706375E+00   0.1532266E+00   0.1611186E+00
   0.1565026E+00   0.1725725E+00   0.1545264E+00   0.1586574E+00   0.1630797E+00   0.1585436E+00   0.1625846E+00   0.1666386E+00   0.1650607E+00   0.1695946E+00
   0.1702553E+00   0.1720157E+00   0.1686245E+00   0.1462714E+00   0.1425512E+00   0.1439737E+00   0.1438711E+00   0.1499634E+00   0.1428898E+00   0.1454366E+00
   0.1424033E+00   0.1474285E+00   0.1434212E+00   0.1432347E+00   0.1508278E+00   0.1532198E+00   0.1448210E+00   0.1421185E+00   0.1551397E+00   0.1487592E+00
   0.1417593E+00   0.1530865E+00   0.1427945E+00   0.1456002E+00   0.1449756E+00   0.1605400E+00   0.1604620E+00   0.1398112E+00   0.1595300E+00   0.1424853E+00
   0.1526835E+00   0.1441711E+00   0.1412298E+00   0.1446324E+00   0.1456243E+00   0.1419024E+00   0.1496914E+00   0.1605937E+00   0.1503762E+00   0.1638734E+00
   0.1579255E+00   0.1627596E+00   0.1447291E+00   0.1461939E+00   0.1484069E+00   0.1513886E+00   0.1547799E+00   0.1433021E+00   0.1417411E+00   0.1568410E+00
   0.1624510E+00   0.1547543E+00   0.1634285E+00   0.1475407E+00   0.1511516E+00   0.1542479E+00   0.1669661E+00   0.1622511E+00   0.1494481E+00   0.1614142E+00
   0.1547344E+00   0.1582864E+00   0.1524052E+00   0.1496022E+00   0.1525176E+00   0.1539539E+00   0.1554745E+00   0.1589961E+00   0.1638180E+00   0.1598660E+00
   0.1421859E+00
   0.3972042E+00   0.4614073E+00   0.4042744E+00   0.4142407E+00   0.4251924E+00   0.4365919E+00   0.4462886E+00   0.4552770E+00   0.4607894E+00   0.3940239E+00
   0.3866324E+00   0.3884948E+00   0.4002365E+00   0.4302655E+00   0.4679946E+00   0.5019572E+00   0.5358933E+00   0.5625798E+00   0.5782046E+00   0.5859262E+00
   0.5820964E+00   0.5734467E+00   0.5594087E+00   0.5368826E+00   0.5102716E+00   0.4840017E+00   0.4032770E+00   0.5423680E+00   0.4587355E+00   0.5250420E+00
   0.4796655E+00   0.3983238E+00   0.3957586E+00   0.4190146E+00   0.4172151E+00   0.4338884E+00   0.4515344E+00   0.4832093E+00   0.5123440E+00   0.4472602E+00
   0.4707484E+00   0.5666972E+00   0.5789246E+00   0.5823904E+00   0.5681283E+00   0.5764961E+00   0.5501468E+00   0.4779322E+00   0.5005751E+00   0.4998737E+00
   0.5551447E+00   0.5664345E+00   0.5626999E+00   0.4817661E+00   0.4573846E+00   0.4433719E+00   0.4417763E+00   0.4160299E+00   0.5323202E+00   0.4841986E+00
   0.4706518E+00   0.5425479E+00   0.5140948E+00   0.4149792E+00   0.5179556E+00   0.4975530E+00   0.5111869E+00   0.4407658E+00   0.4660858E+00   0.4819897E+00
   0.4647445E+00   0.4907791E+00   0.5420807E+00   0.5296555E+00   0.4242145E+00   0.5129226E+00   0.4683667E+00   0.4932870E+00   0.4467644E+00   0.4005774E+00
   0.4004137E+00   0.3976163E+00   0.3938528E+00   0.3866162E+00   0.3795286E+00   0.3726349E+00   0.3687859E+00   0.3665896E+00   0.3702713E+00   0.3802923E+00
   0.3962707E+00   0.4169846E+00   0.4385656E+00   0.4570485E+00   0.4589193E+00   0.3980854E+00   0.3971395E+00   0.3959228E+00   0.4150810E+00   0.4464881E+00
   0.4824639E+00   0.5195822E+00   0.5470152E+00   0.5636022E+00   0.5725291E+00   0.4009353E+00   0.3893672E+00   0.4702897E+00   0.4841256E+00   0.4025214E+00
   0.5763386E+00   0.3964328E+00   0.5677405E+00   0.3823231E+00   0.5540759E+00   0.3701044E+00   0.3682588E+00   0.3673308E+00   0.3755170E+00   0.3758300E+00
   0.5335950E+00   0.3974656E+00   0.4156168E+00   0.4414238E+00   0.5079564E+00   0.4420809E+00   0.4175815E+00   0.4991163E+00   0.3757992E+00   0.3813507E+00
   0.3766140E+00   0.3787182E+00   0.5180943E+00   0.3838539E+00   0.5382904E+00   0.5501766E+00   0.4694219E+00   0.3901733E+00   0.3983019E+00   0.4046927E+00
   0.4103512E+00   0.5557116E+00   0.5509496E+00   0.5343361E+00   0.4989488E+00   0.4627541E+00   0.4299482E+00   0.4140055E+00   0.4129240E+00   0.4755806E+00
   0.4319504E+00   0.4446691E+00   0.4772999E+00   0.5064001E+00   0.5202747E+00   0.5281973E+00   0.4202111E+00   0.4119417E+00   0.4044832E+00   0.5233961E+00
   0.5121799E+00   0.4944896E+00   0.3935963E+00   0.3948126E+00   0.3887193E+00   0.4091033E+00   0.3911666E+00   0.4066796E+00   0.4161699E+00   0.4671610E+00
   0.4853872E+00   0.4296518E+00   0.4973334E+00   0.4887977E+00   0.4609842E+00   0.4471446E+00   0.4157434E+00   0.3988473E+00   0.4230384E+00   0.4287841E+00
   0.4580989E+00   0.4701387E+00   0.4428795E+00   0.4613245E+00   0.4461671E+00   0.4432217E+00   0.4366859E+00   0.4161663E+00   0.4261881E+00   0.4420422E+00
   0.4374271E+00   0.3803640E+00   0.3996448E+00   0.3710023E+00   0.3715493E+00   0.3820870E+00   0.3901711E+00   0.4446143E+00   0.4422863E+00   0.4081128E+00
   0.4370629E+00   0.4295580E+00   0.4038800E+00   0.3983956E+00   0.4036831E+00   0.4189056E+00   0.3751400E+00   0.4199056E+00   0.4200535E+00   0.4258765E+00
   0.4151740E+00   0.4294559E+00   0.4036474E+00   0.3961277E+00   0.3873307E+00   0.3823981E+00   0.3787343E+00   0.4010227E+00   0.3853819E+00   0.4245399E+00
   0.4294605E+00   0.4130541E+00   0.4144130E+00   0.4106430E+00   0.3905586E+00   0.3911064E+00   0.3965252E+00   0.4012020E+00   0.4129039E+00   0.4184617E+00
   0.4057167E+00   0.5237833E+00   0.5226805E+00   0.5474308E+00   0.4945280E+00   0.4965721E+00   0.5005565E+00   0.5190083E+00   0.5439408E+00   0.5669009E+00
   0.4778443E+00   0.4628189E+00   0.4712821E+00   0.4352522E+00   0.4944611E+00   0.4768246E+00   0.5133820E+00   0.5393359E+00   0.5674588E+00   0.4541903E+00
   0.4341709E+00   0.5627959E+00   0.4116092E+00   0.4688602E+00   0.4818959E+00   0.4551117E+00   0.5262324E+00   0.4957934E+00   0.5459577E+00   0.4273916E+00
   0.4085032E+00   0.5327102E+00   0.5438067E+00   0.5703005E+00   0.4321553E+00   0.5116187E+00   0.5533543E+00   0.4575730E+00   0.4450170E+00   0.4696323E+00
   0.5156497E+00   0.4840311E+00   0.5324571E+00   0.5574605E+00   0.5080226E+00   0.5180534E+00   0.5507102E+00   0.4238617E+00   0.4090525E+00   0.4745306E+00
   0.5264964E+00   0.4502559E+00   0.4362837E+00   0.4585944E+00   0.5069011E+00   0.4887318E+00   0.4646875E+00   0.4783250E+00   0.4893670E+00   0.4852020E+00
   0.5177238E+00   0.4906177E+00   0.5331986E+00   0.5127412E+00   0.4174133E+00   0.4409341E+00   0.4866139E+00   0.4374620E+00   0.4293868E+00   0.4417703E+00
   0.4835488E+00   0.4682886E+00   0.4499621E+00   0.4067416E+00   0.4606481E+00   0.4516296E+00   0.4577648E+00   0.4537833E+00   0.4676692E+00   0.4965273E+00
   0.4676595E+00   0.4131154E+00   0.4458430E+00   0.4335340E+00   0.4576077E+00   0.4357835E+00   0.4713356E+00   0.4582972E+00   0.4071224E+00   0.4382762E+00
   0.4437924E+00   0.4206110E+00   0.4262418E+00   0.4171523E+00   0.4219907E+00   0.4512880E+00   0.4491623E+00   0.4255267E+00   0.4015522E+00   0.4086727E+00
   0.4131128E+00   0.4229924E+00   0.4176142E+00   0.4156177E+00   0.4349902E+00   0.4295051E+00   0.4218121E+00   0.4228608E+00   0.4082974E+00   0.3956550E+00
   0.4155893E+00   0.4157359E+00   0.4176581E+00   0.4378746E+00   0.4339125E+00   0.4056177E+00   0.3975975E+00   0.4006079E+00   0.4084941E+00   0.3985513E+00
   0.3916743E+00   0.4077849E+00   0.4109909E+00   0.4049667E+00   0.3989172E+00   0.3935760E+00   0.3886535E+00   0.3827656E+00   0.4126919E+00   0.3868961E+00
   0.3936544E+00   0.3808154E+00   0.3992045E+00   0.4031472E+00   0.3911618E+00   0.3912047E+00   0.3858728E+00   0.3863265E+00   0.3799115E+00   0.3751126E+00
   0.3830910E+00   0.3748603E+00   0.3752105E+00   0.5673575E+00   0.5380869E+00   0.5199786E+00   0.5341610E+00   0.5067605E+00   0.5145443E+00   0.5217425E+00
   0.4964924E+00   0.5042622E+00   0.5024004E+00   0.4918094E+00   0.4800738E+00   0.4781611E+00   0.4905514E+00   0.4894712E+00   0.4677908E+00   0.4672394E+00
   0.4728094E+00   0.4671896E+00   0.4748575E+00   0.4891205E+00   0.4638770E+00   0.4456426E+00   0.4382830E+00   0.4777622E+00   0.4359635E+00   0.4648993E+00
   0.4497289E+00   0.4537192E+00   0.4555282E+00   0.4484382E+00   0.4671538E+00   0.4506826E+00   0.4427742E+00   0.4194075E+00   0.4508755E+00   0.4096728E+00
   0.4279167E+00   0.4114733E+00   0.4367652E+00   0.4362786E+00   0.4367161E+00   0.4214596E+00   0.4242421E+00   0.4313028E+00   0.4018690E+00   0.4137838E+00
   0.4009296E+00   0.4254106E+00   0.3960407E+00   0.4224949E+00   0.4155860E+00   0.4104679E+00   0.3829230E+00   0.3848157E+00   0.4180800E+00   0.3982379E+00
   0.4093499E+00   0.3980903E+00   0.4591509E+00   0.4344749E+00   0.4556598E+00   0.4274713E+00   0.4305098E+00   0.4319115E+00   0.4054219E+00   0.3994408E+00
   0.4487850E+00
  -0.8875129E+00  -0.8067756E+00  -0.8769109E+00  -0.8651775E+00  -0.8536920E+00  -0.8432739E+00  -0.8339823E+00  -0.8249486E+00  -0.8152187E+00  -0.8974703E+00
  -0.9068410E+00  -0.9085285E+00  -0.9038479E+00  -0.8895422E+00  -0.8703254E+00  -0.8509042E+00  -0.8281068E+00  -0.8075699E+00  -0.7921091E+00  -0.7799149E+00
  -0.7728055E+00  -0.7673578E+00  -0.7679116E+00  -0.7759531E+00  -0.7872450E+00  -0.7985770E+00  -0.8910571E+00  -0.8233331E+00  -0.8373816E+00  -0.7912013E+00
  -0.8070899E+00  -0.9004917E+00  -0.9050864E+00  -0.8750933E+00  -0.8958204E+00  -0.8610339E+00  -0.8795279E+00  -0.8626098E+00  -0.8445425E+00  -0.8485227E+00
  -0.8260555E+00  -0.8032307E+00  -0.7903806E+00  -0.7821714E+00  -0.7749639E+00  -0.7765722E+00  -0.7808826E+00  -0.8156785E+00  -0.8007370E+00  -0.8113893E+00
  -0.7911172E+00  -0.7916613E+00  -0.8016137E+00  -0.8617526E+00  -0.8532814E+00  -0.8819616E+00  -0.8669959E+00  -0.8944279E+00  -0.7986423E+00  -0.8276070E+00
  -0.8409152E+00  -0.8199081E+00  -0.8414533E+00  -0.8913079E+00  -0.8339108E+00  -0.8297151E+00  -0.8152145E+00  -0.8796602E+00  -0.8569253E+00  -0.8438764E+00
  -0.8688887E+00  -0.8529779E+00  -0.8120130E+00  -0.8109057E+00  -0.8818332E+00  -0.8284904E+00  -0.8619808E+00  -0.8452338E+00  -0.8712937E+00  -0.8724243E+00